 Title="Hydrodynamic"
 variables="i","j","b"
 zone t="zone number-           1",i=         145,j=          70
 f=point
         145           1  0.2250000    
         144           1  0.2250000    
         143           1  0.2250000    
         142           1  0.2250000    
         141           1  0.2250000    
         140           1  0.2250000    
         139           1  0.2250000    
         138           1  0.2250000    
         137           1  0.2250000    
         136           1  0.2250000    
         135           1  0.2250000    
         134           1  0.2250000    
         133           1  0.2250000    
         132           1  0.2250000    
         131           1  0.2250000    
         130           1  0.2250000    
         129           1  0.2250000    
         128           1  0.2250000    
         127           1  0.2250000    
         126           1  0.2250000    
         125           1  0.2250000    
         124           1  0.2250000    
         123           1  0.2250000    
         122           1  0.2250000    
         121           1  0.2250000    
         120           1  0.2250000    
         119           1  0.2250000    
         118           1  0.2250000    
         117           1  0.2250000    
         116           1  0.2250000    
         115           1  0.2250000    
         114           1  0.2250000    
         113           1  0.2250000    
         112           1  0.2250000    
         111           1  0.2250000    
         110           1  0.2250000    
         109           1  0.2250000    
         108           1  0.2214929    
         107           1  0.2179856    
         106           1  0.2144782    
         105           1  0.2109703    
         104           1  0.2074619    
         103           1  0.2039529    
         102           1  0.2004432    
         101           1  0.1969326    
         100           1  0.1934209    
          99           1  0.1899082    
          98           1  0.1863943    
          97           1  0.1828790    
          96           1  0.1793623    
          95           1  0.1758440    
          94           1  0.1723240    
          93           1  0.1688023    
          92           1  0.1652787    
          91           1  0.1617532    
          90           1  0.1582257    
          89           1  0.1546960    
          88           1  0.1511641    
          87           1  0.1476299    
          86           1  0.1440934    
          85           1  0.1405544    
          84           1  0.1370130    
          83           1  0.1334690    
          82           1  0.1299224    
          81           1  0.1263732    
          80           1  0.1228213    
          79           1  0.1192667    
          78           1  0.1157093    
          77           1  0.1121491    
          76           1  0.1085862    
          75           1  0.1050204    
          74           1  0.1014518    
          73           1  9.7880393E-02
          72           1  9.4306163E-02
          71           1  9.0729117E-02
          70           1  8.7149277E-02
          69           1  8.3566658E-02
          68           1  7.9981290E-02
          67           1  7.6393194E-02
          66           1  7.2802417E-02
          65           1  6.9209002E-02
          64           1  6.5612979E-02
          63           1  6.2014423E-02
          62           1  5.8413375E-02
          61           1  5.4809909E-02
          60           1  5.1204082E-02
          59           1  4.7595974E-02
          58           1  4.3985657E-02
          57           1  4.0373214E-02
          56           1  3.6758732E-02
          55           1  3.3142298E-02
          54           1  2.9524006E-02
          53           1  2.5903955E-02
          52           1  2.2282243E-02
          51           1  1.8658977E-02
          50           1  1.5034264E-02
          49           1  1.1408212E-02
          48           1  7.7809351E-03
          47           1  4.1525490E-03
          46           1  0.0000000E+00
          45           1 -6.6666668E-03
          44           1 -1.3333334E-02
          43           1 -2.0000001E-02
          42           1 -2.6666667E-02
          41           1 -3.3333335E-02
          40           1 -4.0000003E-02
          39           1 -4.6666667E-02
          38           1 -5.3333335E-02
          37           1 -6.0000002E-02
          36           1 -6.6666670E-02
          35           1 -7.3333338E-02
          34           1 -8.0000006E-02
          33           1 -8.6666673E-02
          32           1 -9.3333334E-02
          31           1 -0.1000000    
          30           1 -0.1066667    
          29           1 -0.1133333    
          28           1 -0.1200000    
          27           1 -0.1266667    
          26           1 -0.1333333    
          25           1 -0.1400000    
          24           1 -0.1466667    
          23           1 -0.1533333    
          22           1 -0.1600000    
          21           1 -0.1666667    
          20           1 -0.1733333    
          19           1 -0.1800000    
          18           1 -0.1866667    
          17           1 -0.1933333    
          16           1 -0.2000000    
          15           1 -0.2066667    
          14           1 -0.2133333    
          13           1 -0.2200000    
          12           1 -0.2266667    
          11           1 -0.2333333    
          10           1 -0.2400000    
           9           1 -0.2466667    
           8           1 -0.2533333    
           7           1 -0.2600000    
           6           1 -0.2666667    
           5           1 -0.2733333    
           4           1 -0.2800000    
           3           1 -0.2866667    
           2           1 -0.2933334    
           1           1 -0.3000000    
         145           2  0.2250000    
         144           2  0.2250000    
         143           2  0.2250000    
         142           2  0.2250000    
         141           2  0.2250000    
         140           2  0.2250000    
         139           2  0.2250000    
         138           2  0.2250000    
         137           2  0.2250000    
         136           2  0.2250000    
         135           2  0.2250000    
         134           2  0.2250000    
         133           2  0.2250000    
         132           2  0.2250000    
         131           2  0.2250000    
         130           2  0.2250000    
         129           2  0.2250000    
         128           2  0.2250000    
         127           2  0.2250000    
         126           2  0.2250000    
         125           2  0.2250000    
         124           2  0.2250000    
         123           2  0.2250000    
         122           2  0.2250000    
         121           2  0.2250000    
         120           2  0.2250000    
         119           2  0.2250000    
         118           2  0.2250000    
         117           2  0.2250000    
         116           2  0.2250000    
         115           2  0.2250000    
         114           2  0.2250000    
         113           2  0.2250000    
         112           2  0.2250000    
         111           2  0.2250000    
         110           2  0.2250000    
         109           2  0.2250000    
         108           2  0.2215557    
         107           2  0.2181112    
         106           2  0.2146662    
         105           2  0.2112205    
         104           2  0.2077737    
         103           2  0.2043257    
         102           2  0.2008761    
         101           2  0.1974249    
         100           2  0.1939716    
          99           2  0.1905161    
          98           2  0.1870582    
          97           2  0.1835976    
          96           2  0.1801341    
          95           2  0.1766675    
          94           2  0.1731976    
          93           2  0.1697242    
          92           2  0.1662470    
          91           2  0.1627659    
          90           2  0.1592808    
          89           2  0.1557914    
          88           2  0.1522976    
          87           2  0.1487992    
          86           2  0.1452962    
          85           2  0.1417882    
          84           2  0.1382753    
          83           2  0.1347574    
          82           2  0.1312342    
          81           2  0.1277057    
          80           2  0.1241719    
          79           2  0.1206326    
          78           2  0.1170879    
          77           2  0.1135375    
          76           2  0.1099816    
          75           2  0.1064201    
          74           2  0.1028529    
          73           2  9.9280097E-02
          72           2  9.5701635E-02
          71           2  9.2117555E-02
          70           2  8.8527873E-02
          69           2  8.4932640E-02
          68           2  8.1331909E-02
          67           2  7.7725731E-02
          66           2  7.4114189E-02
          65           2  7.0497364E-02
          64           2  6.6875339E-02
          63           2  6.3248239E-02
          62           2  5.9616160E-02
          61           2  5.5979237E-02
          60           2  5.2337606E-02
          59           2  4.8691407E-02
          58           2  4.5040794E-02
          57           2  4.1385930E-02
          56           2  3.7726987E-02
          55           2  3.4064144E-02
          54           2  3.0397585E-02
          53           2  2.6727507E-02
          52           2  2.3054112E-02
          51           2  1.9377608E-02
          50           2  1.5698208E-02
          49           2  1.2016132E-02
          48           2  8.3316071E-03
          47           2  4.6448647E-03
          46           2  0.0000000E+00
          45           2 -6.6666668E-03
          44           2 -1.3333334E-02
          43           2 -2.0000001E-02
          42           2 -2.6666667E-02
          41           2 -3.3333335E-02
          40           2 -4.0000003E-02
          39           2 -4.6666667E-02
          38           2 -5.3333335E-02
          37           2 -6.0000002E-02
          36           2 -6.6666670E-02
          35           2 -7.3333338E-02
          34           2 -8.0000006E-02
          33           2 -8.6666673E-02
          32           2 -9.3333334E-02
          31           2 -0.1000000    
          30           2 -0.1066667    
          29           2 -0.1133333    
          28           2 -0.1200000    
          27           2 -0.1266667    
          26           2 -0.1333333    
          25           2 -0.1400000    
          24           2 -0.1466667    
          23           2 -0.1533333    
          22           2 -0.1600000    
          21           2 -0.1666667    
          20           2 -0.1733333    
          19           2 -0.1800000    
          18           2 -0.1866667    
          17           2 -0.1933333    
          16           2 -0.2000000    
          15           2 -0.2066667    
          14           2 -0.2133333    
          13           2 -0.2200000    
          12           2 -0.2266667    
          11           2 -0.2333333    
          10           2 -0.2400000    
           9           2 -0.2466667    
           8           2 -0.2533333    
           7           2 -0.2600000    
           6           2 -0.2666667    
           5           2 -0.2733333    
           4           2 -0.2800000    
           3           2 -0.2866667    
           2           2 -0.2933334    
           1           2 -0.3000000    
         145           3  0.2250000    
         144           3  0.2250000    
         143           3  0.2250000    
         142           3  0.2250000    
         141           3  0.2250000    
         140           3  0.2250000    
         139           3  0.2250000    
         138           3  0.2250000    
         137           3  0.2250000    
         136           3  0.2250000    
         135           3  0.2250000    
         134           3  0.2250000    
         133           3  0.2250000    
         132           3  0.2250000    
         131           3  0.2250000    
         130           3  0.2250000    
         129           3  0.2250000    
         128           3  0.2250000    
         127           3  0.2250000    
         126           3  0.2250000    
         125           3  0.2250000    
         124           3  0.2250000    
         123           3  0.2250000    
         122           3  0.2250000    
         121           3  0.2250000    
         120           3  0.2250000    
         119           3  0.2250000    
         118           3  0.2250000    
         117           3  0.2250000    
         116           3  0.2250000    
         115           3  0.2250000    
         114           3  0.2250000    
         113           3  0.2250000    
         112           3  0.2250000    
         111           3  0.2250000    
         110           3  0.2250000    
         109           3  0.2250000    
         108           3  0.2216185    
         107           3  0.2182367    
         106           3  0.2148541    
         105           3  0.2114704    
         104           3  0.2080852    
         103           3  0.2046980    
         102           3  0.2013087    
         101           3  0.1979167    
         100           3  0.1945217    
          99           3  0.1911234    
          98           3  0.1877215    
          97           3  0.1843155    
          96           3  0.1809052    
          95           3  0.1774902    
          94           3  0.1740703    
          93           3  0.1706451    
          92           3  0.1672143    
          91           3  0.1637776    
          90           3  0.1603349    
          89           3  0.1568857    
          88           3  0.1534300    
          87           3  0.1499674    
          86           3  0.1464977    
          85           3  0.1430208    
          84           3  0.1395364    
          83           3  0.1360444    
          82           3  0.1325446    
          81           3  0.1290369    
          80           3  0.1255212    
          79           3  0.1219973    
          78           3  0.1184651    
          77           3  0.1149246    
          76           3  0.1113757    
          75           3  0.1078184    
          74           3  0.1042526    
          73           3  0.1006784    
          72           3  9.7095698E-02
          71           3  9.3504585E-02
          70           3  8.9905083E-02
          69           3  8.6297251E-02
          68           3  8.2681172E-02
          67           3  7.9056926E-02
          66           3  7.5424641E-02
          65           3  7.1784422E-02
          64           3  6.8136431E-02
          63           3  6.4480804E-02
          62           3  6.0817730E-02
          61           3  5.7147391E-02
          60           3  5.3469986E-02
          59           3  4.9785737E-02
          58           3  4.6094868E-02
          57           3  4.2397626E-02
          56           3  3.8694266E-02
          55           3  3.4985062E-02
          54           3  3.1270284E-02
          53           3  2.7550230E-02
          52           3  2.3825202E-02
          51           3  2.0095512E-02
          50           3  1.6361481E-02
          49           3  1.2623439E-02
          48           3  8.8817244E-03
          47           3  5.1366840E-03
          46           3  0.0000000E+00
          45           3 -6.6666668E-03
          44           3 -1.3333334E-02
          43           3 -2.0000001E-02
          42           3 -2.6666667E-02
          41           3 -3.3333335E-02
          40           3 -4.0000003E-02
          39           3 -4.6666667E-02
          38           3 -5.3333335E-02
          37           3 -6.0000002E-02
          36           3 -6.6666670E-02
          35           3 -7.3333338E-02
          34           3 -8.0000006E-02
          33           3 -8.6666673E-02
          32           3 -9.3333334E-02
          31           3 -0.1000000    
          30           3 -0.1066667    
          29           3 -0.1133333    
          28           3 -0.1200000    
          27           3 -0.1266667    
          26           3 -0.1333333    
          25           3 -0.1400000    
          24           3 -0.1466667    
          23           3 -0.1533333    
          22           3 -0.1600000    
          21           3 -0.1666667    
          20           3 -0.1733333    
          19           3 -0.1800000    
          18           3 -0.1866667    
          17           3 -0.1933333    
          16           3 -0.2000000    
          15           3 -0.2066667    
          14           3 -0.2133333    
          13           3 -0.2200000    
          12           3 -0.2266667    
          11           3 -0.2333333    
          10           3 -0.2400000    
           9           3 -0.2466667    
           8           3 -0.2533333    
           7           3 -0.2600000    
           6           3 -0.2666667    
           5           3 -0.2733333    
           4           3 -0.2800000    
           3           3 -0.2866667    
           2           3 -0.2933334    
           1           3 -0.3000000    
         145           4  0.2250000    
         144           4  0.2250000    
         143           4  0.2250000    
         142           4  0.2250000    
         141           4  0.2250000    
         140           4  0.2250000    
         139           4  0.2250000    
         138           4  0.2250000    
         137           4  0.2250000    
         136           4  0.2250000    
         135           4  0.2250000    
         134           4  0.2250000    
         133           4  0.2250000    
         132           4  0.2250000    
         131           4  0.2250000    
         130           4  0.2250000    
         129           4  0.2250000    
         128           4  0.2250000    
         127           4  0.2250000    
         126           4  0.2250000    
         125           4  0.2250000    
         124           4  0.2250000    
         123           4  0.2250000    
         122           4  0.2250000    
         121           4  0.2250000    
         120           4  0.2250000    
         119           4  0.2250000    
         118           4  0.2250000    
         117           4  0.2250000    
         116           4  0.2250000    
         115           4  0.2250000    
         114           4  0.2250000    
         113           4  0.2250000    
         112           4  0.2250000    
         111           4  0.2250000    
         110           4  0.2250000    
         109           4  0.2250000    
         108           4  0.2216813    
         107           4  0.2183620    
         106           4  0.2150417    
         105           4  0.2117199    
         104           4  0.2083962    
         103           4  0.2050699    
         102           4  0.2017405    
         101           4  0.1984078    
         100           4  0.1950710    
          99           4  0.1917298    
          98           4  0.1883838    
          97           4  0.1850323    
          96           4  0.1816751    
          95           4  0.1783117    
          94           4  0.1749417    
          93           4  0.1715646    
          92           4  0.1681801    
          91           4  0.1647878    
          90           4  0.1613874    
          89           4  0.1579784    
          88           4  0.1545607    
          87           4  0.1511338    
          86           4  0.1476975    
          85           4  0.1442515    
          84           4  0.1407956    
          83           4  0.1373295    
          82           4  0.1338531    
          81           4  0.1303661    
          80           4  0.1268684    
          79           4  0.1233598    
          78           4  0.1198402    
          77           4  0.1163095    
          76           4  0.1127677    
          75           4  0.1092146    
          74           4  0.1056502    
          73           4  0.1020746    
          72           4  9.8487660E-02
          71           4  9.4889522E-02
          70           4  9.1280207E-02
          69           4  8.7659799E-02
          68           4  8.4028386E-02
          67           4  8.0386110E-02
          66           4  7.6733105E-02
          65           4  7.3069543E-02
          64           4  6.9395609E-02
          63           4  6.5711513E-02
          62           4  6.2017485E-02
          61           4  5.8313780E-02
          60           4  5.4600656E-02
          59           4  5.0878413E-02
          58           4  4.7147349E-02
          57           4  4.3407794E-02
          56           4  3.9660085E-02
          55           4  3.5904586E-02
          54           4  3.2141663E-02
          53           4  2.8371710E-02
          52           4  2.4595128E-02
          51           4  2.0812333E-02
          50           4  1.7023753E-02
          49           4  1.3229828E-02
          48           4  9.4310101E-03
          47           4  5.6277602E-03
          46           4  0.0000000E+00
          45           4 -6.6666668E-03
          44           4 -1.3333334E-02
          43           4 -2.0000001E-02
          42           4 -2.6666667E-02
          41           4 -3.3333335E-02
          40           4 -4.0000003E-02
          39           4 -4.6666667E-02
          38           4 -5.3333335E-02
          37           4 -6.0000002E-02
          36           4 -6.6666670E-02
          35           4 -7.3333338E-02
          34           4 -8.0000006E-02
          33           4 -8.6666673E-02
          32           4 -9.3333334E-02
          31           4 -0.1000000    
          30           4 -0.1066667    
          29           4 -0.1133333    
          28           4 -0.1200000    
          27           4 -0.1266667    
          26           4 -0.1333333    
          25           4 -0.1400000    
          24           4 -0.1466667    
          23           4 -0.1533333    
          22           4 -0.1600000    
          21           4 -0.1666667    
          20           4 -0.1733333    
          19           4 -0.1800000    
          18           4 -0.1866667    
          17           4 -0.1933333    
          16           4 -0.2000000    
          15           4 -0.2066667    
          14           4 -0.2133333    
          13           4 -0.2200000    
          12           4 -0.2266667    
          11           4 -0.2333333    
          10           4 -0.2400000    
           9           4 -0.2466667    
           8           4 -0.2533333    
           7           4 -0.2600000    
           6           4 -0.2666667    
           5           4 -0.2733333    
           4           4 -0.2800000    
           3           4 -0.2866667    
           2           4 -0.2933334    
           1           4 -0.3000000    
         145           5  0.2250000    
         144           5  0.2250000    
         143           5  0.2250000    
         142           5  0.2250000    
         141           5  0.2250000    
         140           5  0.2250000    
         139           5  0.2250000    
         138           5  0.2250000    
         137           5  0.2250000    
         136           5  0.2250000    
         135           5  0.2250000    
         134           5  0.2250000    
         133           5  0.2250000    
         132           5  0.2250000    
         131           5  0.2250000    
         130           5  0.2250000    
         129           5  0.2250000    
         128           5  0.2250000    
         127           5  0.2250000    
         126           5  0.2250000    
         125           5  0.2250000    
         124           5  0.2250000    
         123           5  0.2250000    
         122           5  0.2250000    
         121           5  0.2250000    
         120           5  0.2250000    
         119           5  0.2250000    
         118           5  0.2250000    
         117           5  0.2250000    
         116           5  0.2250000    
         115           5  0.2250000    
         114           5  0.2250000    
         113           5  0.2250000    
         112           5  0.2250000    
         111           5  0.2250000    
         110           5  0.2250000    
         109           5  0.2250000    
         108           5  0.2217438    
         107           5  0.2184870    
         106           5  0.2152290    
         105           5  0.2119690    
         104           5  0.2087065    
         103           5  0.2054409    
         102           5  0.2021716    
         101           5  0.1988979    
         100           5  0.1956192    
          99           5  0.1923350    
          98           5  0.1890447    
          97           5  0.1857477    
          96           5  0.1824435    
          95           5  0.1791315    
          94           5  0.1758113    
          93           5  0.1724823    
          92           5  0.1691440    
          91           5  0.1657959    
          90           5  0.1624377    
          89           5  0.1590689    
          88           5  0.1556890    
          87           5  0.1522978    
          86           5  0.1488948    
          85           5  0.1454797    
          84           5  0.1420522    
          83           5  0.1386121    
          82           5  0.1351589    
          81           5  0.1316926    
          80           5  0.1282129    
          79           5  0.1247196    
          78           5  0.1212126    
          77           5  0.1176917    
          76           5  0.1141568    
          75           5  0.1106079    
          74           5  0.1070450    
          73           5  0.1034679    
          72           5  9.9876814E-02
          71           5  9.6271664E-02
          70           5  9.2652559E-02
          69           5  8.9019589E-02
          68           5  8.5372888E-02
          67           5  8.1712611E-02
          66           5  7.8038931E-02
          65           5  7.4352071E-02
          64           5  7.0652246E-02
          63           5  6.6939734E-02
          62           5  6.3214824E-02
          61           5  5.9477810E-02
          60           5  5.5729046E-02
          59           5  5.1968884E-02
          58           5  4.8197709E-02
          57           5  4.4415925E-02
          56           5  4.0623955E-02
          55           5  3.6822256E-02
          54           5  3.3011284E-02
          53           5  2.9191533E-02
          52           5  2.5363499E-02
          51           5  2.1527706E-02
          50           5  1.7684687E-02
          49           5  1.3834993E-02
          48           5  9.9791875E-03
          47           5  6.1178450E-03
          46           5  0.0000000E+00
          45           5 -6.6666668E-03
          44           5 -1.3333334E-02
          43           5 -2.0000001E-02
          42           5 -2.6666667E-02
          41           5 -3.3333335E-02
          40           5 -4.0000003E-02
          39           5 -4.6666667E-02
          38           5 -5.3333335E-02
          37           5 -6.0000002E-02
          36           5 -6.6666670E-02
          35           5 -7.3333338E-02
          34           5 -8.0000006E-02
          33           5 -8.6666673E-02
          32           5 -9.3333334E-02
          31           5 -0.1000000    
          30           5 -0.1066667    
          29           5 -0.1133333    
          28           5 -0.1200000    
          27           5 -0.1266667    
          26           5 -0.1333333    
          25           5 -0.1400000    
          24           5 -0.1466667    
          23           5 -0.1533333    
          22           5 -0.1600000    
          21           5 -0.1666667    
          20           5 -0.1733333    
          19           5 -0.1800000    
          18           5 -0.1866667    
          17           5 -0.1933333    
          16           5 -0.2000000    
          15           5 -0.2066667    
          14           5 -0.2133333    
          13           5 -0.2200000    
          12           5 -0.2266667    
          11           5 -0.2333333    
          10           5 -0.2400000    
           9           5 -0.2466667    
           8           5 -0.2533333    
           7           5 -0.2600000    
           6           5 -0.2666667    
           5           5 -0.2733333    
           4           5 -0.2800000    
           3           5 -0.2866667    
           2           5 -0.2933334    
           1           5 -0.3000000    
         145           6  0.2250000    
         144           6  0.2250000    
         143           6  0.2250000    